
     Program PWSCF v.7.5 starts on 12Dec2025 at 19:36: 6 

     This program is part of the open-source Quantum ESPRESSO suite
     for quantum simulation of materials; please cite
         "P. Giannozzi et al., J. Phys.:Condens. Matter 21 395502 (2009);
         "P. Giannozzi et al., J. Phys.:Condens. Matter 29 465901 (2017);
         "P. Giannozzi et al., J. Chem. Phys. 152 154105 (2020);
          URL http://www.quantum-espresso.org", 
     in publications or presentations arising from this work. More details at
     http://www.quantum-espresso.org/quote

     Parallel version (MPI & OpenMP), running on       2 processor cores
     Number of MPI processes:                 1
     Threads/MPI process:                     2

     MPI processes distributed on     1 nodes
     9017 MiB available memory on the printing compute node when the environment starts

     Waiting for input...
     Reading input from standard input

     Current dimensions of program PWSCF are:
     Max number of different atomic species (ntypx) = 10
     Max number of k-points (npk) =  40000
     Max angular momentum in pseudopotentials (lmaxx) =  4

     Atomic positions and unit cell read from directory:
     ./si.save/


     Subspace diagonalization in iterative solution of the eigenvalue problem:
     a serial algorithm will be used


     G-vector sticks info
     --------------------
     sticks:   dense  smooth     PW     G-vecs:    dense   smooth      PW
     Sum         433     433    139                 5961     5961    1067

     Using Slab Decomposition



     bravais-lattice index     =            2
     lattice parameter (alat)  =      10.2600  a.u.
     unit-cell volume          =     270.0114 (a.u.)^3
     number of atoms/cell      =            2
     number of atomic types    =            1
     number of electrons       =         8.00
     number of Kohn-Sham states=           12
     kinetic-energy cutoff     =      30.0000  Ry
     charge density cutoff     =     120.0000  Ry
     Exchange-correlation= SLA  PW   PBE  PBE
                           (   1   4   3   4   0   0   0)

     celldm(1)=  10.260000  celldm(2)=   0.000000  celldm(3)=   0.000000
     celldm(4)=   0.000000  celldm(5)=   0.000000  celldm(6)=   0.000000

     crystal axes: (cart. coord. in units of alat)
               a(1) = (  -0.500000   0.000000   0.500000 )  
               a(2) = (   0.000000   0.500000   0.500000 )  
               a(3) = (  -0.500000   0.500000   0.000000 )  

     reciprocal axes: (cart. coord. in units 2 pi/alat)
               b(1) = ( -1.000000 -1.000000  1.000000 )  
               b(2) = (  1.000000  1.000000  1.000000 )  
               b(3) = ( -1.000000  1.000000 -1.000000 )  


     PseudoPot. # 1 for Si read from file:
     ./Si.pbe-rrkj.UPF
     MD5 check sum: 8af8e7039d270e0118f3b3651cf51d3d
     Pseudo is Norm-conserving, Zval =  4.0
     Generated by new atomic code, or converted to UPF format
     Using radial grid of  883 points,  3 beta functions with: 
                l(1) =   0
                l(2) =   0
                l(3) =   1

     atomic species   valence    mass     pseudopotential
     Si                4.00    28.08600     Si( 1.00)

     48 Sym. Ops., with inversion, found (24 have fractional translation)



   Cartesian axes

     site n.     atom                  positions (alat units)
         1        Si     tau(   1) = (   0.0000000   0.0000000   0.0000000  )
         2        Si     tau(   2) = (   0.2500000   0.2500000   0.2500000  )

     number of k points=   202

     Number of k-points >= 100: set verbosity='high' to print them.

     Dense  grid:     5961 G-vectors     FFT dimensions: (  32,  32,  32)

     Estimated max dynamical RAM per process >       3.91 MB

     The potential is recalculated from file :
     ./si.save/charge-density

     Starting wfcs are    8 randomized atomic wfcs +    4 random wfcs

     Band Structure Calculation
     Davidson diagonalization with overlap
     c_bands:  1 eigenvalues not converged

     ethr =  1.25E-10,  avg # of iterations = 39.1

     total cpu time spent up to now is      166.6 secs

     End of band structure calculation

     Number of k-points >= 100: set verbosity='high' to print the bands.

     highest occupied, lowest unoccupied level (ev):     6.2347    6.8321

     Writing all to output data dir ./si.save/ :
     XML data file, pseudopotentials, collected wavefunctions

     init_run     :      0.47s CPU      0.43s WALL (       1 calls)
     electrons    :    290.47s CPU    165.71s WALL (       1 calls)

     Called by init_run:
     wfcinit      :      0.00s CPU      0.00s WALL (       1 calls)
     potinit      :      0.05s CPU      0.04s WALL (       1 calls)
     hinit0       :      0.39s CPU      0.36s WALL (       1 calls)

     Called by electrons:
     c_bands      :    290.47s CPU    165.71s WALL (       1 calls)
     v_of_rho     :      0.05s CPU      0.04s WALL (       1 calls)

     Called by c_bands:
     init_us_2    :      0.06s CPU      0.04s WALL (     202 calls)
     cegterg      :    280.36s CPU    159.35s WALL (     483 calls)

     Called by *egterg:
     cdiaghg      :      9.33s CPU      6.83s WALL (    8093 calls)
     h_psi        :    212.39s CPU    122.65s WALL (    8576 calls)
     g_psi        :      0.41s CPU      0.38s WALL (    7891 calls)

     Called by h_psi:
     h_psi:calbec :     18.15s CPU      8.95s WALL (    8576 calls)
     vloc_psi     :    183.73s CPU    107.76s WALL (    8576 calls)
                                        0.00s GPU  (    8576 calls)
     add_vuspsi   :      3.06s CPU      1.96s WALL (    8576 calls)

     General routines
     calbec       :     18.07s CPU      8.92s WALL (    8576 calls)
     fft          :      0.32s CPU      0.28s WALL (      10 calls)
     fftw         :    163.29s CPU     96.33s WALL (  118202 calls)
     davcio       :      0.06s CPU      0.06s WALL (     404 calls)

     Parallel routines

     PWSCF        :   4m51.92s CPU   2m46.96s WALL


   This run was terminated on:  19:38:53  12Dec2025            

=------------------------------------------------------------------------------=
   JOB DONE.
=------------------------------------------------------------------------------=
